 Gaussian 16, Revision C.01,
 Gaussian 16:  ES64L-G16RevC.01  3-Jul-2019

 --------------------
 #P B3LYP/cc-pVDZ opt
 --------------------

 -------------------
 B3LYP/cc-pVDZ water
 -------------------
 Symbolic Z-matrix:
 Charge =  0 Multiplicity = 1

 SCF Done:  E(RB3LYP) =  -76.2380813686     A.U. after   12 cycles
 SCF Done:  E(RB3LYP) =  -76.2843837113     A.U. after   10 cycles
 SCF Done:  E(RB3LYP) =  -76.3623955670     A.U. after    9 cycles
 SCF Done:  E(RB3LYP) =  -76.4016244756     A.U. after    9 cycles
 SCF Done:  E(RB3LYP) =  -76.4202986740     A.U. after   10 cycles
 SCF Done:  E(RB3LYP) =  -76.4206075123     A.U. after    9 cycles
 SCF Done:  E(RB3LYP) =  -76.4206270469     A.U. after    7 cycles
 Optimization completed.
    -- Stationary point found.

                         Standard orientation:
 ---------------------------------------------------------------------
 Center     Atomic      Atomic             Coordinates (Angstroms)
 Number     Number       Type             X           Y           Z
 ---------------------------------------------------------------------
      1          8           0       -0.000000    0.000000    0.120978
      2          1           0       -0.000000    0.756733   -0.483914
      3          1           0       -0.000000   -0.756733   -0.483914
 ---------------------------------------------------------------------

 The electronic state is 1-A1.
 Alpha  occ. eigenvalues --  -19.12474  -0.99187  -0.50677  -0.36744  -0.28774
 Alpha virt. eigenvalues --    0.04920   0.12514   0.54957   0.61152   0.90387
 Alpha virt. eigenvalues --    0.91812   0.99616   1.19060   1.23636   1.41647
 Alpha virt. eigenvalues --    1.59093   1.66969   2.08974   2.13132   2.92059

 Mulliken charges:
               1
     1  O   -0.262765
     2  H    0.131383
     3  H    0.131383
 Sum of Mulliken charges =  -0.00000

 Dipole moment (field-independent basis, Debye):
    X=             -0.0000    Y=              0.0000    Z=             -1.9381  Tot=              1.9381
 Quadrupole moment (field-independent basis, Debye-Ang):
   XX=             -7.0003   YY=             -4.3341   ZZ=             -5.8769
   XY=              0.0000   XZ=              0.0000   YZ=              0.0000

 Normal termination of Gaussian 16 at Tue Jun  8 11:45:28 2021.
