 Gaussian 09, Revision D.01,
 Gaussian 09:  EM64L-G09RevD.01 24-Apr-2013

 --------------------
 #P B3LYP/cc-pVDZ opt
 --------------------

 -----------------------
 B3LYP/cc-pVDZ imidazole
 -----------------------
 Symbolic Z-matrix:
 Charge =  0 Multiplicity = 1

 SCF Done:  E(RB3LYP) =  -226.217229194     A.U. after   14 cycles
 SCF Done:  E(RB3LYP) =  -226.231281447     A.U. after   13 cycles
 SCF Done:  E(RB3LYP) =  -226.231964767     A.U. after   11 cycles
 SCF Done:  E(RB3LYP) =  -226.232001938     A.U. after    9 cycles
 SCF Done:  E(RB3LYP) =  -226.232002420     A.U. after    8 cycles
 Optimization completed.
    -- Stationary point found.

                         Standard orientation:
 ---------------------------------------------------------------------
 Center     Atomic      Atomic             Coordinates (Angstroms)
 Number     Number       Type             X           Y           Z
 ---------------------------------------------------------------------
      1          6           0        0.980177   -0.556455   -0.000093
      2          6           0       -1.141891   -0.266290   -0.000006
      3          6           0       -0.595493    0.997434    0.000069
      4          7           0        0.769794    0.795366    0.000062
      5          1           0        1.481548    1.514514    0.000188
      6          1           0        1.978816   -0.989107   -0.000163
      7          1           0       -2.195757   -0.536852   -0.000018
      8          1           0       -1.034703    1.990438    0.000134
      9          7           0       -0.153602   -1.227813   -0.000057
 ---------------------------------------------------------------------

 The electronic state is 1-A.
 Alpha  occ. eigenvalues --  -14.38803 -14.30447 -10.23653 -10.21383 -10.19468
 Alpha  occ. eigenvalues --   -1.01101  -0.86748  -0.73986  -0.61328  -0.58664
 Alpha  occ. eigenvalues --   -0.55769  -0.43749  -0.43467  -0.42774  -0.40209
 Alpha  occ. eigenvalues --   -0.28009  -0.26518  -0.22906
 Alpha virt. eigenvalues --    0.02668   0.04535   0.06769   0.09955   0.10496
 Alpha virt. eigenvalues --    0.12438   0.20993   0.22696   0.27620   0.30614
 Alpha virt. eigenvalues --    0.39003   0.41700   0.46442   0.46961   0.49317

 Mulliken charges:
               1
     1  C    0.129267
     2  C    0.031264
     3  C    0.024733
     4  N   -0.052759
     5  H    0.089053
     6  H    0.007146
     7  H   -0.019031
     8  H   -0.004799
     9  N   -0.204875
 Sum of Mulliken charges =   0.00000

 Dipole moment (field-independent basis, Debye):
    X=              1.7097    Y=              3.2130    Z=              0.0002  Tot=              3.6396
 Quadrupole moment (field-independent basis, Debye-Ang):
   XX=            -23.0390   YY=            -28.8715   ZZ=            -31.2208
   XY=              0.7651   XZ=              0.0001   YZ=              0.0005

 Normal termination of Gaussian 09 at Sat Jun  5 14:51:30 2021.
