 Gaussian 16, Revision C.01,
 Gaussian 16:  ES64L-G16RevC.01  3-Jul-2019

 --------------------
 #P B3LYP/cc-pVDZ opt
 --------------------

 ----------------------
 B3LYP/cc-pVDZ water +1
 ----------------------
 Symbolic Z-matrix:
 Charge =  1 Multiplicity = 2

 SCF Done:  E(UB3LYP) =  -75.8388639434     A.U. after   16 cycles
 SCF Done:  E(UB3LYP) =  -75.8767065174     A.U. after   12 cycles
 SCF Done:  E(UB3LYP) =  -75.9381511888     A.U. after   12 cycles
 SCF Done:  E(UB3LYP) =  -75.9721031974     A.U. after   12 cycles
 SCF Done:  E(UB3LYP) =  -75.9729605822     A.U. after    9 cycles
 SCF Done:  E(UB3LYP) =  -75.9729614433     A.U. after    7 cycles
 SCF Done:  E(UB3LYP) =  -75.9729623136     A.U. after    7 cycles
 Optimization completed.
    -- Stationary point found.

                         Standard orientation:
 ---------------------------------------------------------------------
 Center     Atomic      Atomic             Coordinates (Angstroms)
 Number     Number       Type             X           Y           Z
 ---------------------------------------------------------------------
      1          8           0        0.000000   -0.000000    0.118839
      2          1           0       -0.000000    0.820821   -0.475354
      3          1           0       -0.000000   -0.820821   -0.475354
 ---------------------------------------------------------------------

 The electronic state is 2-B1.
 Alpha  occ. eigenvalues --  -19.70216  -1.50584  -0.98337  -0.86634  -0.85050
 Alpha virt. eigenvalues --   -0.29925  -0.22105   0.17920   0.18565   0.42916
 Alpha virt. eigenvalues --    0.47080   0.58966   0.79452   0.83802   1.02426
 Alpha virt. eigenvalues --    1.15067   1.21469   1.58632   1.58654   2.31816

  Beta  occ. eigenvalues --  -19.67459  -1.43301  -0.96197  -0.82057
  Beta virt. eigenvalues --   -0.60108  -0.28838  -0.21471   0.17770   0.19130
  Beta virt. eigenvalues --    0.48436   0.52549   0.60116   0.80827   0.84691
  Beta virt. eigenvalues --    1.04065   1.19058   1.21156   1.59163   1.62270

 Mulliken charges and spin densities:
               1          2
     1  O    0.349055   1.052341
     2  H    0.325473  -0.026171
     3  H    0.325473  -0.026171
 Sum of Mulliken charges =   1.00000   1.00000

 Dipole moment (field-independent basis, Debye):
    X=             -0.0000    Y=              0.0000    Z=             -2.2276  Tot=              2.2276
 Quadrupole moment (field-independent basis, Debye-Ang):
   XX=             -4.7390   YY=             -1.6731   ZZ=             -4.3275
   XY=              0.0000   XZ=              0.0000   YZ=             -0.0000

 Normal termination of Gaussian 16 at Tue Jun  8 12:07:44 2021.
