 Gaussian 16, Revision C.01,
 Gaussian 16:  ES64L-G16RevC.01  3-Jul-2019

 ------------------------------------
 #P B3LYP/cc-pVDZ opt geom=checkpoint
 ------------------------------------

 ----------------------
 B3LYP/cc-pVDZ water -1
 ----------------------
 Structure from the checkpoint file:  "water_anion.chk"
 Charge = -1 Multiplicity = 2

 SCF Done:  E(UB3LYP) =  -76.2760999366     A.U. after   11 cycles
 SCF Done:  E(UB3LYP) =  -76.2823018088     A.U. after   11 cycles
 SCF Done:  E(UB3LYP) =  -76.2832196574     A.U. after   11 cycles
 SCF Done:  E(UB3LYP) =  -76.2832329995     A.U. after    8 cycles
 SCF Done:  E(UB3LYP) =  -76.2832345815     A.U. after    7 cycles
 Optimization completed.
    -- Stationary point found.

                         Standard orientation:
 ---------------------------------------------------------------------
 Center     Atomic      Atomic             Coordinates (Angstroms)
 Number     Number       Type             X           Y           Z
 ---------------------------------------------------------------------
      1          8           0        0.000000   -0.000000    0.137775
      2          1           0       -0.000000    0.789844   -0.551099
      3          1           0       -0.000000   -0.789844   -0.551099
 ---------------------------------------------------------------------

 The electronic state is 2-A1.
 Alpha  occ. eigenvalues --  -18.79848  -0.64395  -0.15278  -0.06866   0.02950
 Alpha  occ. eigenvalues --    0.22817
 Alpha virt. eigenvalues --    0.34725   0.79120   0.85762   1.20374   1.20932
 Alpha virt. eigenvalues --    1.28275   1.46612   1.55717   1.69858   1.89701
 Alpha virt. eigenvalues --    1.93257   2.25115   2.29381   3.18240   3.18616

  Beta  occ. eigenvalues --  -18.79026  -0.62190  -0.14165  -0.05145   0.03845
  Beta virt. eigenvalues --    0.31798   0.37987   0.80425   0.88845   1.21740
  Beta virt. eigenvalues --    1.21984   1.29531   1.47920   1.57077   1.71206
  Beta virt. eigenvalues --    1.90950   1.94916   2.26793   2.31662   3.18837

 Mulliken charges and spin densities:
               1          2
     1  O   -0.326717   0.041632
     2  H   -0.336642   0.479184
     3  H   -0.336642   0.479184
 Sum of Mulliken charges =  -1.00000   1.00000

 Dipole moment (field-independent basis, Debye):
    X=              0.0000    Y=              0.0000    Z=              0.9224  Tot=              0.9224
 Quadrupole moment (field-independent basis, Debye-Ang):
   XX=            -10.6151   YY=            -11.5106   ZZ=            -11.7198
   XY=             -0.0000   XZ=             -0.0000   YZ=             -0.0000

 Normal termination of Gaussian 16 at Tue Jun  8 12:35:56 2021.
