 Gaussian 16, Revision C.01,
 Gaussian 16:  ES64L-G16RevC.01  3-Jul-2019

 --------------------
 #P B3LYP/cc-pVDZ opt
 --------------------

 ----------------------
 B3LYP/cc-pVDZ water -1
 ----------------------
 Symbolic Z-matrix:
 Charge = -1 Multiplicity = 2

 SCF Done:  E(UB3LYP) =  -76.2201140983     A.U. after   16 cycles
 SCF Done:  E(UB3LYP) =  -76.2393497891     A.U. after   12 cycles
 SCF Done:  E(UB3LYP) =  -76.2698406385     A.U. after   12 cycles
 SCF Done:  E(UB3LYP) =  -76.2812393195     A.U. after   12 cycles
 SCF Done:  E(UB3LYP) =  -76.2832291735     A.U. after   11 cycles
 SCF Done:  E(UB3LYP) =  -76.2832341776     A.U. after    8 cycles
 SCF Done:  E(UB3LYP) =  -76.2832345943     A.U. after    7 cycles
 Optimization completed.
    -- Stationary point found.

                         Standard orientation:
 ---------------------------------------------------------------------
 Center     Atomic      Atomic             Coordinates (Angstroms)
 Number     Number       Type             X           Y           Z
 ---------------------------------------------------------------------
      1          8           0        0.000000    0.000000    0.137734
      2          1           0       -0.000000    0.790127   -0.550935
      3          1           0       -0.000000   -0.790127   -0.550935
 ---------------------------------------------------------------------

 The electronic state is 2-A1.
 Alpha  occ. eigenvalues --  -18.79847  -0.64390  -0.15282  -0.06858   0.02951
 Alpha  occ. eigenvalues --    0.22816
 Alpha virt. eigenvalues --    0.34723   0.79123   0.85747   1.20368   1.20933
 Alpha virt. eigenvalues --    1.28273   1.46648   1.55703   1.69876   1.89709
 Alpha virt. eigenvalues --    1.93231   2.25095   2.29363   3.18245   3.18597

  Beta  occ. eigenvalues --  -18.79025  -0.62185  -0.14168  -0.05136   0.03847
  Beta virt. eigenvalues --    0.31796   0.37985   0.80429   0.88830   1.21735
  Beta virt. eigenvalues --    1.21985   1.29530   1.47957   1.57063   1.71224
  Beta virt. eigenvalues --    1.90959   1.94891   2.26774   2.31644   3.18842

 Mulliken charges and spin densities:
               1          2
     1  O   -0.326833   0.041693
     2  H   -0.336584   0.479154
     3  H   -0.336584   0.479154
 Sum of Mulliken charges =  -1.00000   1.00000

 Dipole moment (field-independent basis, Debye):
    X=              0.0000    Y=             -0.0000    Z=              0.9217  Tot=              0.9217
 Quadrupole moment (field-independent basis, Debye-Ang):
   XX=            -10.6149   YY=            -11.5113   ZZ=            -11.7188
   XY=             -0.0000   XZ=             -0.0000   YZ=              0.0000

 Normal termination of Gaussian 16 at Tue Jun  8 12:07:53 2021.
