 Gaussian 16, Revision C.01,
 Gaussian 16:  ES64L-G16RevC.01  3-Jul-2019

 ------------------------------------
 #P B3LYP/cc-pVDZ opt geom=checkpoint
 ------------------------------------

 ----------------------
 B3LYP/cc-pVDZ water +1
 ----------------------
 Structure from the checkpoint file:  "water_cation.chk"
 Charge =  1 Multiplicity = 2

 SCF Done:  E(UB3LYP) =  -75.9688839514     A.U. after   11 cycles
 SCF Done:  E(UB3LYP) =  -75.9729311704     A.U. after   10 cycles
 SCF Done:  E(UB3LYP) =  -75.9729602555     A.U. after    8 cycles
 SCF Done:  E(UB3LYP) =  -75.9729622643     A.U. after    7 cycles
 Optimization completed.
    -- Stationary point found.

                         Standard orientation:
 ---------------------------------------------------------------------
 Center     Atomic      Atomic             Coordinates (Angstroms)
 Number     Number       Type             X           Y           Z
 ---------------------------------------------------------------------
      1          8           0        0.000000    0.000000    0.118772
      2          1           0       -0.000000    0.821081   -0.475089
      3          1           0       -0.000000   -0.821081   -0.475089
 ---------------------------------------------------------------------

 The electronic state is 2-B1.
 Alpha  occ. eigenvalues --  -19.70213  -1.50579  -0.98342  -0.86631  -0.85041
 Alpha virt. eigenvalues --   -0.29926  -0.22102   0.17931   0.18549   0.42917
 Alpha virt. eigenvalues --    0.47076   0.58963   0.79441   0.83837   1.02449
 Alpha virt. eigenvalues --    1.15082   1.21445   1.58642   1.58650   2.31793

  Beta  occ. eigenvalues --  -19.67455  -1.43296  -0.96203  -0.82047
  Beta virt. eigenvalues --   -0.60106  -0.28839  -0.21469   0.17781   0.19114
  Beta virt. eigenvalues --    0.48432   0.52551   0.60113   0.80815   0.84727
  Beta virt. eigenvalues --    1.04087   1.19070   1.21133   1.59173   1.62267

 Mulliken charges and spin densities:
               1          2
     1  O    0.348910   1.052343
     2  H    0.325545  -0.026172
     3  H    0.325545  -0.026172
 Sum of Mulliken charges =   1.00000   1.00000

 Dipole moment (field-independent basis, Debye):
    X=             -0.0000    Y=             -0.0000    Z=             -2.2268  Tot=              2.2268
 Quadrupole moment (field-independent basis, Debye-Ang):
   XX=             -4.7391   YY=             -1.6704   ZZ=             -4.3292
   XY=              0.0000   XZ=              0.0000   YZ=              0.0000

 Normal termination of Gaussian 16 at Tue Jun  8 12:35:50 2021.
