 Gaussian 16, Revision C.01,
 Gaussian 16:  ES64L-G16RevC.01  3-Jul-2019

 -------------------------
 #p b3lyp/cc-pvdz opt freq
 -------------------------

 -------------------------------
 (H2O)3 b3lyp/cc-pvdz (opt/freq)
 -------------------------------
 Symbolic Z-matrix:
 Charge =  0 Multiplicity = 1

 SCF Done:  E(RB3LYP) =  -229.304791502     A.U. after   11 cycles
 SCF Done:  E(RB3LYP) =  -229.305036139     A.U. after    9 cycles
 SCF Done:  E(RB3LYP) =  -229.305219700     A.U. after    9 cycles
 SCF Done:  E(RB3LYP) =  -229.305315764     A.U. after    9 cycles
 SCF Done:  E(RB3LYP) =  -229.305329295     A.U. after    8 cycles
 SCF Done:  E(RB3LYP) =  -229.305349123     A.U. after    9 cycles
 SCF Done:  E(RB3LYP) =  -229.305359331     A.U. after    8 cycles
 SCF Done:  E(RB3LYP) =  -229.305360789     A.U. after    7 cycles
 SCF Done:  E(RB3LYP) =  -229.305361971     A.U. after    7 cycles
 SCF Done:  E(RB3LYP) =  -229.305363163     A.U. after    7 cycles
 SCF Done:  E(RB3LYP) =  -229.305363382     A.U. after    7 cycles
 Optimization completed.
    -- Stationary point found.
 Normal termination of Gaussian 16 at Fri Jun 18 13:50:46 2021.

 -------------------------------------------------------------------
 #P Geom=AllCheck Guess=TCheck SCRF=Check GenChk RB3LYP/CC-pVDZ Freq
 -------------------------------------------------------------------

 Structure from the checkpoint file:  "w3-b3lyp-dz.chk"
 -------------------------------
 (H2O)3 b3lyp/cc-pvdz (opt/freq)
 -------------------------------
 Charge =  0 Multiplicity = 1

                         Standard orientation:
 ---------------------------------------------------------------------
 Center     Atomic      Atomic             Coordinates (Angstroms)
 Number     Number       Type             X           Y           Z
 ---------------------------------------------------------------------
      1          1           0       -1.153454    0.044905   -0.161574
      2          8           0       -1.195625    1.030004   -0.096747
      3          1           0       -1.664864    1.187582    0.736287
      4          8           0       -0.279141   -1.554546   -0.107249
      5          1           0        0.549475   -1.018090   -0.054942
      6          1           0       -0.319486   -1.989928    0.757631
      7          8           0        1.486841    0.526777    0.121779
      8          1           0        0.606217    0.974635    0.104219
      9          1           0        1.885514    0.783019   -0.723890
 ---------------------------------------------------------------------

 SCF Done:  E(RB3LYP) =  -229.305363382     A.U. after    1 cycles

 The electronic state is 1-A.
 Alpha  occ. eigenvalues --  -19.13525 -19.13391 -19.13383  -1.01389  -0.99207
 Alpha  occ. eigenvalues --   -0.99104  -0.53403  -0.50769  -0.50551  -0.39612
 Alpha  occ. eigenvalues --   -0.39156  -0.36527  -0.31130  -0.29839  -0.29550
 Alpha virt. eigenvalues --    0.03488   0.08031   0.08358   0.20316   0.20852
 Alpha virt. eigenvalues --    0.21198   0.49586   0.52438   0.56819   0.59343
 Alpha virt. eigenvalues --    0.61376   0.62479   0.82702   0.86639   0.92506

 Mulliken charges:
               1
     1  H    0.137853
     2  O   -0.276614
     3  H    0.141207
     4  O   -0.277641
     5  H    0.133836
     6  H    0.140205
     7  O   -0.279408
     8  H    0.133374
     9  H    0.147189
 Sum of Mulliken charges =  -0.00000

 Dipole moment (field-independent basis, Debye):
    X=             -0.1905    Y=             -0.0149    Z=              1.3193  Tot=              1.3330
 Quadrupole moment (field-independent basis, Debye-Ang):
   XX=            -18.4914   YY=            -19.4986   ZZ=            -17.2597
   XY=              0.2798   XZ=             -5.9802   YZ=             -2.4139

  Exact polarizability:      21.303       0.138      21.001      -2.748      -1.331      16.382
 Approx polarizability:      24.539       0.190      24.244      -3.044      -1.595      21.264

                      1                      2                      3
                      A                      A                      A
 Frequencies --    221.8843               233.9420               241.8765
 Red. masses --      1.5054                 3.3940                 2.0014
 Frc consts  --      0.0437                 0.1094                 0.0690
 IR Inten    --    139.3433               102.7192                13.2066

                      4                      5                      6
                      A                      A                      A
 Frequencies --    249.2987               266.6112               288.8856
 Red. masses --      1.3637                 6.4305                 1.0825
 Frc consts  --      0.0499                 0.2693                 0.0532
 IR Inten    --     66.4323                 3.0521                23.6190

                      7                      8                      9
                      A                      A                      A
 Frequencies --    423.2483               443.2943               544.1300
 Red. masses --      1.0997                 1.0828                 1.0573
 Frc consts  --      0.1161                 0.1254                 0.1844
 IR Inten    --     45.2267                 2.1918               115.4468

                     10                     11                     12
                      A                      A                      A
 Frequencies --    727.5712               766.2086              1061.9126
 Red. masses --      1.0408                 1.0538                 1.0407
 Frc consts  --      0.3246                 0.3645                 0.6914
 IR Inten    --    257.8994               320.3018                 5.9274

                     13                     14                     15
                      A                      A                      A
 Frequencies --   1677.9659              1686.2219              1700.3800
 Red. masses --      1.0718                 1.0712                 1.0743
 Frc consts  --      1.7780                 1.7945                 1.8301
 IR Inten    --     37.9740                37.6628                69.8037

                     16                     17                     18
                      A                      A                      A
 Frequencies --   3369.7745              3482.9274              3487.3602
 Red. masses --      1.0630                 1.0597                 1.0597
 Frc consts  --      7.1118                 7.5743                 7.5931
 IR Inten    --      1.4912               693.3007               683.5157

                     19                     20                     21
                      A                      A                      A
 Frequencies --   3803.0909              3805.2949              3808.1436
 Red. masses --      1.0670                 1.0672                 1.0674
 Frc consts  --      9.0926                 9.1049                 9.1199
 IR Inten    --     60.3666                34.4875                35.3948

 - Thermochemistry -
 -------------------
 Temperature   298.150 Kelvin.  Pressure   1.00000 Atm.
 Atom     1 has atomic number  1 and mass   1.00783

 Molecular mass:    54.03169 amu.
 Principal axes and moments of inertia in atomic units:
                           1         2         3
     Eigenvalues --   250.51641 251.05793 486.30713
           X           -0.59649   0.80165  -0.03937
           Y            0.80255   0.59638  -0.01584
           Z           -0.01079   0.04105   0.99910
 This molecule is an asymmetric top.
 Rotational symmetry number  1.
 Rotational temperatures (Kelvin)      0.34574     0.34500     0.17811
 Rotational constants (GHZ):           7.20408     7.18854     3.71111
 Zero-point vibrational energy     193137.2 (Joules/Mol)
                                   46.16090 (Kcal/Mol)
 Warning -- explicit consideration of   9 degrees of freedom as
           vibrations may cause significant error
 Vibrational temperatures:    319.24   336.59   348.01   358.69   383.59
          (Kelvin)            415.64   608.96   637.80   782.88  1046.81
                             1102.40  1527.86  2414.22  2426.10  2446.47
                             4848.35  5011.16  5017.53  5471.80  5474.97
                             5479.07

 Zero-point correction=                           0.073562 (Hartree/Particle)
 Thermal correction to Energy=                    0.080291
 Thermal correction to Enthalpy=                  0.081236
 Thermal correction to Gibbs Free Energy=         0.045087
 Sum of electronic and zero-point Energies=           -229.231801
 Sum of electronic and thermal Energies=              -229.225072
 Sum of electronic and thermal Enthalpies=            -229.224128
 Sum of electronic and thermal Free Energies=         -229.260276

                     E (Thermal)             CV                S
                      KCal/Mol        Cal/Mol-Kelvin    Cal/Mol-Kelvin
 Total                   50.384             22.390             76.081
 Electronic               0.000              0.000              0.000
 Translational            0.889              2.981             37.883
 Rotational               0.889              2.981             24.929
 Vibrational             48.606             16.428             13.269
 Vibration     1          0.648              1.808              1.944
 Vibration     2          0.654              1.789              1.848
 Vibration     3          0.658              1.776              1.789
 Vibration     4          0.662              1.764              1.736
 Vibration     5          0.672              1.734              1.618
 Vibration     6          0.685              1.694              1.480
 Vibration     7          0.785              1.420              0.881
 Vibration     8          0.803              1.376              0.816
 Vibration     9          0.899              1.153              0.556

                           ! Non-Optimized Parameters !
 Normal termination of Gaussian 16 at Fri Jun 18 13:51:34 2021.
