 Gaussian 16, Revision C.01,
 Gaussian 16:  ES64L-G16RevC.01  3-Jul-2019

 ----------------------------
 #P B3LYP/cc-pVDZ opt pop=esp
 ----------------------------

 -----------------------
 B3LYP/cc-pVDZ imidazole
 -----------------------
 Symbolic Z-matrix:
 Charge =  0 Multiplicity = 1

 SCF Done:  E(RB3LYP) =  -226.217222839     A.U. after   14 cycles
 SCF Done:  E(RB3LYP) =  -226.231279275     A.U. after   12 cycles
 SCF Done:  E(RB3LYP) =  -226.231965480     A.U. after   11 cycles
 SCF Done:  E(RB3LYP) =  -226.231999392     A.U. after    9 cycles
 SCF Done:  E(RB3LYP) =  -226.232001288     A.U. after    8 cycles
 Optimization completed.
    -- Stationary point found.

                         Standard orientation:
 ---------------------------------------------------------------------
 Center     Atomic      Atomic             Coordinates (Angstroms)
 Number     Number       Type             X           Y           Z
 ---------------------------------------------------------------------
      1          6           0        0.980385   -0.556087   -0.000093
      2          6           0       -1.141757   -0.266722   -0.000005
      3          6           0       -0.595890    0.997214    0.000069
      4          7           0        0.769479    0.795665    0.000062
      5          1           0        1.480997    1.515052    0.000187
      6          1           0        1.979160   -0.988429   -0.000162
      7          1           0       -2.195520   -0.537663   -0.000017
      8          1           0       -1.035481    1.990049    0.000135
      9          7           0       -0.153135   -1.227872   -0.000058
 ---------------------------------------------------------------------

 The electronic state is 1-A.
 Alpha  occ. eigenvalues --  -14.38803 -14.30447 -10.23653 -10.21383 -10.19467
 Alpha  occ. eigenvalues --   -1.01101  -0.86749  -0.73986  -0.61328  -0.58664
 Alpha  occ. eigenvalues --   -0.55769  -0.43749  -0.43468  -0.42774  -0.40209
 Alpha  occ. eigenvalues --   -0.28009  -0.26518  -0.22906
 Alpha virt. eigenvalues --    0.02668   0.04534   0.06769   0.09954   0.10496
 Alpha virt. eigenvalues --    0.12438   0.20993   0.22696   0.27621   0.30613
 Alpha virt. eigenvalues --    0.39003   0.41700   0.46442   0.46960   0.49318

 Mulliken charges:
               1
     1  C    0.129255
     2  C    0.031374
     3  C    0.024620
     4  N   -0.052687
     5  H    0.089051
     6  H    0.007152
     7  H   -0.019039
     8  H   -0.004805
     9  N   -0.204921
 Sum of Mulliken charges =  -0.00000

 Dipole moment (field-independent basis, Debye):
    X=              1.7086    Y=              3.2135    Z=              0.0002  Tot=              3.6395
 Quadrupole moment (field-independent basis, Debye-Ang):
   XX=            -23.0398   YY=            -28.8709   ZZ=            -31.2206
   XY=              0.7670   XZ=              0.0001   YZ=              0.0005

 ESP charges:
               1
     1  C    0.109578
     2  C    0.068715
     3  C   -0.271704
     4  N   -0.111072
     5  H    0.262875
     6  H    0.098088
     7  H    0.103067
     8  H    0.169758
     9  N   -0.429307
 Sum of ESP charges =  -0.00000

 Normal termination of Gaussian 16 at Sat Jul 24 12:35:17 2021.
