 Gaussian 16, Revision C.01,
 Gaussian 16:  ES64L-G16RevC.01  3-Jul-2019

 -------------------------
 #p b3lyp/cc-pvdz opt freq
 -------------------------

 -----------------------------
 H2CO b3lyp/cc-pvdz (opt/freq)
 -----------------------------
 Symbolic Z-matrix:
 Charge =  0 Multiplicity = 1

 SCF Done:  E(RB3LYP) =  -114.507091586     A.U. after   11 cycles
 SCF Done:  E(RB3LYP) =  -114.507607302     A.U. after   10 cycles
 SCF Done:  E(RB3LYP) =  -114.507639639     A.U. after    8 cycles
 Optimization completed.
    -- Stationary point found.
 Normal termination of Gaussian 16 at Wed Jun 16 17:00:36 2021.

 -------------------------------------------------------------------
 #P Geom=AllCheck Guess=TCheck SCRF=Check GenChk RB3LYP/CC-pVDZ Freq
 -------------------------------------------------------------------

 Structure from the checkpoint file:  "h2co-b3lyp-dz.chk"
 -----------------------------
 H2CO b3lyp/cc-pvdz (opt/freq)
 -----------------------------
 Charge =  0 Multiplicity = 1

                         Standard orientation:
 ---------------------------------------------------------------------
 Center     Atomic      Atomic             Coordinates (Angstroms)
 Number     Number       Type             X           Y           Z
 ---------------------------------------------------------------------
      1          6           0       -0.000000    0.000000   -0.527034
      2          8           0        0.000000   -0.000000    0.677169
      3          1           0       -0.000000    0.945971   -1.127575
      4          1           0       -0.000000   -0.945971   -1.127575
 ---------------------------------------------------------------------

 SCF Done:  E(RB3LYP) =  -114.507639639     A.U. after    1 cycles

 The electronic state is 1-A1.
 Alpha  occ. eigenvalues --  -19.16015 -10.28984  -1.06342  -0.63279  -0.49192
 Alpha  occ. eigenvalues --   -0.45018  -0.40069  -0.26705
 Alpha virt. eigenvalues --   -0.04414   0.06516   0.13328   0.20822   0.44981
 Alpha virt. eigenvalues --    0.46219   0.53702   0.58745   0.63176   0.75917
 Alpha virt. eigenvalues --    0.87163   0.92586   0.97895   1.05359   1.16496

 Mulliken charges:
               1
     1  C    0.162225
     2  O   -0.179543
     3  H    0.008659
     4  H    0.008659
 Sum of Mulliken charges =  -0.00000

 Dipole moment (field-independent basis, Debye):
    X=              0.0000    Y=              0.0000    Z=             -2.0696  Tot=              2.0696
 Quadrupole moment (field-independent basis, Debye-Ang):
   XX=            -11.4125   YY=            -11.5753   ZZ=            -11.9176
   XY=              0.0000   XZ=              0.0000   YZ=             -0.0000

  Exact polarizability:       7.439       0.000      14.634       0.000      -0.000      18.604
 Approx polarizability:       9.974       0.000      17.257       0.000       0.000      31.396

                      1                      2                      3
                     B1                     B2                     A1
 Frequencies --   1186.7131              1253.8989              1514.9607
 Red. masses --      1.3734                 1.3481                 1.1008
 Frc consts  --      1.1396                 1.2489                 1.4885
 IR Inten    --      1.5757                15.9731                 5.7813

                      4                      5                      6
                     A1                     A1                     B2
 Frequencies --   1831.5515              2862.5070              2915.7642
 Red. masses --      7.5853                 1.0452                 1.1214
 Frc consts  --     14.9920                 5.0458                 5.6169
 IR Inten    --    108.8360                59.4907               177.1233

 - Thermochemistry -
 -------------------
 Temperature   298.150 Kelvin.  Pressure   1.00000 Atm.
 Atom     1 has atomic number  6 and mass  12.00000

 Molecular mass:    30.01056 amu.
 Principal axes and moments of inertia in atomic units:
                           1         2         3
     Eigenvalues --     6.44123  46.65314  53.09437
           X            0.00000  -0.00000   1.00000
           Y            0.00000   1.00000   0.00000
           Z            1.00000  -0.00000  -0.00000
 This molecule is an asymmetric top.
 Rotational symmetry number  2.
 Rotational temperatures (Kelvin)     13.44680     1.85655     1.63132
 Rotational constants (GHZ):         280.18594    38.68423    33.99120
 Zero-point vibrational energy      69176.4 (Joules/Mol)
                                   16.53356 (Kcal/Mol)
 Vibrational temperatures:   1707.42  1804.08  2179.69  2635.19  4118.51
          (Kelvin)           4195.13

 Zero-point correction=                           0.026348 (Hartree/Particle)
 Thermal correction to Energy=                    0.029217
 Thermal correction to Enthalpy=                  0.030162
 Thermal correction to Gibbs Free Energy=         0.005330
 Sum of electronic and zero-point Energies=           -114.481292
 Sum of electronic and thermal Energies=              -114.478422
 Sum of electronic and thermal Enthalpies=            -114.477478
 Sum of electronic and thermal Free Energies=         -114.502309

                     E (Thermal)             CV                S
                      KCal/Mol        Cal/Mol-Kelvin    Cal/Mol-Kelvin
 Total                   18.334              6.442             52.262
 Electronic               0.000              0.000              0.000
 Translational            0.889              2.981             36.130
 Rotational               0.889              2.981             16.041
 Vibrational             16.557              0.480              0.091

 Optimization completed.
    -- Stationary point found.
 Normal termination of Gaussian 16 at Wed Jun 16 17:00:40 2021.
