 Gaussian 16, Revision C.01,
 Gaussian 16:  ES64L-G16RevC.01  3-Jul-2019

 ----------------------------------------------------------------
 #p B3LYP/cc-pVDZ TD=(singlets,root=1) geom=checkpoint guess=read
 ----------------------------------------------------------------

 ---------------
 rhodamine TDDFT
 ---------------
 Structure from the checkpoint file:  "rhodamine1_tddft.chk"
 Charge =  1 Multiplicity = 1

                         Standard orientation:
 ---------------------------------------------------------------------
 Center     Atomic      Atomic             Coordinates (Angstroms)
 Number     Number       Type             X           Y           Z
 ---------------------------------------------------------------------
      1          6           0        2.113334   -3.587089   -0.063239
      2          6           0        2.735966   -2.323416    0.014006
      3          6           0        1.963441   -1.178828   -0.077356
      4          6           0        0.546669   -1.214680   -0.250940
      5          6           0       -0.055552   -2.507970   -0.324487
      6          6           0        0.691458   -3.652075   -0.234891
      7          6           0       -0.169023   -0.000445   -0.328550
      8          6           0        0.541039    1.217044   -0.251192
      9          6           0        1.957951    1.187808   -0.077505
     10          6           0        2.725092    2.336019    0.013796
     11          1           0        3.803983    2.245147    0.144377
     12          6           0        2.096554    3.596758   -0.063624
     13          6           0        0.674429    3.655111   -0.235654
     14          6           0       -0.067207    2.507526   -0.325176
     15          1           0        3.814428   -2.227438    0.144485
     16          1           0       -1.135641   -2.574811   -0.454461
     17          1           0        0.207868   -4.629149   -0.293281
     18          1           0        0.186362    4.629936   -0.294371
     19          1           0       -1.147572    2.569230   -0.455392
     20          6           0       -1.644524   -0.004003   -0.586124
     21          6           0       -2.634994   -0.005899    0.423963
     22          6           0       -2.046152   -0.005365   -1.932303
     23          6           0       -3.991105   -0.009048    0.056604
     24          6           0       -3.399085   -0.008498   -2.280132
     25          1           0       -1.285732   -0.003901   -2.715953
     26          6           0       -4.376412   -0.010325   -1.281868
     27          1           0       -4.730775   -0.010428    0.857876
     28          1           0       -3.684688   -0.009526   -3.333950
     29          1           0       -5.435435   -0.012756   -1.545583
     30          8           0        2.624061    0.006047    0.005825
     31          7           0        2.833875   -4.726041    0.021034
     32          1           0        2.386597   -5.631423   -0.032390
     33          1           0        3.837685   -4.705922    0.142971
     34          7           0        2.811667    4.739067    0.021422
     35          1           0        3.815865    4.723637    0.140837
     36          1           0        2.360549    5.642354   -0.035134
     37          6           0       -2.367372   -0.004897    1.897766
     38          8           0       -3.233652   -0.006404    2.741721
     39          8           0       -1.049165   -0.002201    2.213224
     40          1           0       -1.009290   -0.002048    3.188051
 ---------------------------------------------------------------------

 SCF Done:  E(RB3LYP) =  -1106.24733874     A.U. after    1 cycles

 Excitation energies and oscillator strengths:

 Excited State   1:      Singlet-A      3.0337 eV  408.69 nm  f=0.5917  <S**2>=0.000
      85 -> 89        -0.11068
      86 -> 87         0.69201
 This state for optimization and/or second-order correction.
 Total Energy, E(TD-HF/TD-DFT) =  -1106.13585356
 Copying the excited state density for this state as the 1-particle RhoCI density.

 Excited State   2:      Singlet-A      3.2673 eV  379.47 nm  f=0.0002  <S**2>=0.000
      85 -> 87         0.69451

 Excited State   3:      Singlet-A      3.4264 eV  361.85 nm  f=0.0186  <S**2>=0.000
      83 -> 87        -0.40628
      84 -> 87         0.57131

 The electronic state is 1-A.
 Alpha  occ. eigenvalues --  -19.34392 -19.28650 -19.22553 -14.48331 -14.48330
 Alpha  occ. eigenvalues --  -10.41738 -10.39741 -10.39739 -10.38152 -10.38152
 Alpha  occ. eigenvalues --  -10.36508 -10.33181 -10.33181 -10.32869 -10.32766
 Alpha  occ. eigenvalues --  -10.32765 -10.31869 -10.31868 -10.31805 -10.31430
 Alpha  occ. eigenvalues --  -10.31429 -10.30867 -10.30536 -10.30087 -10.29927
 Alpha  occ. eigenvalues --   -1.24792  -1.20475  -1.11320  -1.06734  -1.06673
 Alpha  occ. eigenvalues --   -1.00405  -0.98790  -0.97073  -0.92773  -0.90842
 Alpha  occ. eigenvalues --   -0.87604  -0.86998  -0.86598  -0.86554  -0.79575
 Alpha  occ. eigenvalues --   -0.78906  -0.77102  -0.75472  -0.74226  -0.71777
 Alpha  occ. eigenvalues --   -0.70166  -0.69930  -0.68940  -0.66984  -0.65747
 Alpha  occ. eigenvalues --   -0.64177  -0.62749  -0.62531  -0.60960  -0.60232
 Alpha  occ. eigenvalues --   -0.60003  -0.59078  -0.57962  -0.56776  -0.56392
 Alpha  occ. eigenvalues --   -0.56039  -0.56025  -0.54917  -0.54745  -0.54693
 Alpha  occ. eigenvalues --   -0.53381  -0.52547  -0.51606  -0.51197  -0.50862
 Alpha  occ. eigenvalues --   -0.50394  -0.48874  -0.48012  -0.47342  -0.47186
 Alpha  occ. eigenvalues --   -0.45389  -0.45231  -0.44996  -0.41753  -0.39684
 Alpha  occ. eigenvalues --   -0.37995  -0.37433  -0.36912  -0.36631  -0.35619
 Alpha  occ. eigenvalues --   -0.32870
 Alpha virt. eigenvalues --   -0.21421  -0.15546  -0.14088  -0.12442  -0.12277
 Alpha virt. eigenvalues --   -0.12067  -0.06794  -0.06058  -0.05998  -0.04601
 Alpha virt. eigenvalues --   -0.03817  -0.03287  -0.03033  -0.02837  -0.02106

 Mulliken charges:
               1
     1  C    0.006374
     2  C    0.043014
     3  C    0.115925
     4  C    0.003839
     5  C    0.017925
     6  C    0.080774
     7  C    0.223438
     8  C    0.003780
     9  C    0.115945
    10  C    0.043014
    11  H   -0.004705
    12  C    0.006369
    13  C    0.080783
    14  C    0.017935
    15  H   -0.004707
    16  H    0.004482
    17  H   -0.001735
    18  H   -0.001731
    19  H    0.004488
    20  C   -0.087795
    21  C   -0.047253
    22  C    0.046877
    23  C    0.079616
    24  C    0.059339
    25  H   -0.025332
    26  C    0.058251
    27  H    0.001950
    28  H    0.003723
    29  H    0.004798
    30  O   -0.203982
    31  N   -0.017639
    32  H    0.113336
    33  H    0.112578
    34  N   -0.017635
    35  H    0.112580
    36  H    0.113339
    37  C    0.156493
    38  O   -0.203242
    39  O   -0.177098
    40  H    0.161888
 Sum of Mulliken charges =   1.00000

 Dipole moment (field-independent basis, Debye):
    X=              7.0749    Y=              0.0158    Z=             -1.8677  Tot=              7.3173
 Quadrupole moment (field-independent basis, Debye-Ang):
   XX=            -92.6865   YY=            -50.1094   ZZ=           -136.2056
   XY=             -0.0893   XZ=             13.8528   YZ=             -0.0157

 Normal termination of Gaussian 16 at Thu Jun 10 22:34:00 2021.
