 Gaussian 16, Revision C.01,
 Gaussian 16:  ES64L-G16RevC.01  3-Jul-2019

 ----------------------------------------------------------------------
 #p B3LYP/cc-pVDZ TD=(singlets,root=1) geom=checkpoint guess=read opt=(
 maxcycles=20)
 ----------------------------------------------------------------------

 ---------------
 rhodamine TDDFT
 ---------------
 Structure from the checkpoint file:  "rhodamine2_tddft_opt.chk"
 Charge =  1 Multiplicity = 1

 SCF Done:  E(RB3LYP) =  -1420.73821901     A.U. after    1 cycles
 Total Energy, E(TD-HF/TD-DFT) =  -1420.63871082
 SCF Done:  E(RB3LYP) =  -1420.73690322     A.U. after   12 cycles
 Total Energy, E(TD-HF/TD-DFT) =  -1420.64023344
 SCF Done:  E(RB3LYP) =  -1420.73621960     A.U. after   12 cycles
 Total Energy, E(TD-HF/TD-DFT) =  -1420.64048523
 SCF Done:  E(RB3LYP) =  -1420.73517029     A.U. after   12 cycles
 Total Energy, E(TD-HF/TD-DFT) =  -1420.64067229
 SCF Done:  E(RB3LYP) =  -1420.73308961     A.U. after   12 cycles
 Total Energy, E(TD-HF/TD-DFT) =  -1420.64084536
 SCF Done:  E(RB3LYP) =  -1420.73051364     A.U. after   13 cycles
 Total Energy, E(TD-HF/TD-DFT) =  -1420.64107850
 SCF Done:  E(RB3LYP) =  -1420.72834360     A.U. after   12 cycles
 Total Energy, E(TD-HF/TD-DFT) =  -1420.64094818
 SCF Done:  E(RB3LYP) =  -1420.73062312     A.U. after   12 cycles
 Total Energy, E(TD-HF/TD-DFT) =  -1420.64140907
 SCF Done:  E(RB3LYP) =  -1420.73019818     A.U. after   12 cycles
 Total Energy, E(TD-HF/TD-DFT) =  -1420.64191603
 SCF Done:  E(RB3LYP) =  -1420.73047914     A.U. after   12 cycles
 Total Energy, E(TD-HF/TD-DFT) =  -1420.64197685
 SCF Done:  E(RB3LYP) =  -1420.73044397     A.U. after   11 cycles
 Total Energy, E(TD-HF/TD-DFT) =  -1420.64211980
 SCF Done:  E(RB3LYP) =  -1420.73024307     A.U. after   12 cycles
 Total Energy, E(TD-HF/TD-DFT) =  -1420.64217063
 SCF Done:  E(RB3LYP) =  -1420.73038780     A.U. after   11 cycles
 Total Energy, E(TD-HF/TD-DFT) =  -1420.64218362
 SCF Done:  E(RB3LYP) =  -1420.73049358     A.U. after   10 cycles
 Total Energy, E(TD-HF/TD-DFT) =  -1420.64218954
 SCF Done:  E(RB3LYP) =  -1420.73053701     A.U. after   10 cycles
 Total Energy, E(TD-HF/TD-DFT) =  -1420.64219089
 SCF Done:  E(RB3LYP) =  -1420.73054338     A.U. after    7 cycles
 Total Energy, E(TD-HF/TD-DFT) =  -1420.64219098
 SCF Done:  E(RB3LYP) =  -1420.73054453     A.U. after    7 cycles

 Excitation energies and oscillator strengths:

 Excited State   1:      Singlet-A      2.4042 eV  515.69 nm  f=0.5174  <S**2>=0.000
     117 ->119         0.14403
     118 ->119         0.68791
 This state for optimization and/or second-order correction.
 Total Energy, E(TD-HF/TD-DFT) =  -1420.64219096
 Copying the excited state density for this state as the 1-particle RhoCI density.

 Excited State   2:      Singlet-A      2.8866 eV  429.52 nm  f=0.2144  <S**2>=0.000
     116 ->119        -0.19851
     117 ->119        -0.65350
     118 ->119         0.15159

 Excited State   3:      Singlet-A      3.3872 eV  366.03 nm  f=0.2207  <S**2>=0.000
     114 ->119        -0.22194
     116 ->119        -0.63380
     117 ->119         0.16239

 Optimization completed.
    -- Stationary point found.

                         Standard orientation:
 ---------------------------------------------------------------------
 Center     Atomic      Atomic             Coordinates (Angstroms)
 Number     Number       Type             X           Y           Z
 ---------------------------------------------------------------------
      1          6           0       -3.481311   -1.202721    0.036237
      2          6           0       -2.186870   -1.771500    0.125802
      3          6           0       -1.041637   -0.957192    0.027097
      4          6           0       -1.112518    0.425953   -0.153890
      5          6           0       -2.413402    0.968486   -0.262948
      6          6           0       -3.566170    0.199711   -0.174293
      7          6           0        0.145571    1.194776   -0.276463
      8          6           0        1.339225    0.465772   -0.186319
      9          6           0        1.320566   -0.959665    0.013314
     10          6           0        2.459535   -1.734007    0.113364
     11          1           0        2.321838   -2.805045    0.240573
     12          6           0        3.747042   -1.142745    0.033542
     13          6           0        3.793878    0.286852   -0.133202
     14          6           0        2.654156    1.043029   -0.232894
     15          1           0       -2.017712   -2.834547    0.276353
     16          1           0       -2.518712    2.039554   -0.437762
     17          1           0       -4.525938    0.696812   -0.279968
     18          1           0        4.753252    0.799668   -0.152692
     19          1           0        2.741400    2.124587   -0.330123
     20          6           0        0.127203    2.636972   -0.604284
     21          6           0       -0.423847    3.651705    0.226480
     22          6           0        0.641851    3.023071   -1.860774
     23          6           0       -0.474187    4.978435   -0.232927
     24          6           0        0.594134    4.346595   -2.297800
     25          1           0        1.054254    2.254158   -2.517014
     26          6           0        0.025053    5.331435   -1.484203
     27          1           0       -0.904047    5.726956    0.433559
     28          1           0        0.990151    4.604602   -3.282299
     29          1           0       -0.023749    6.368435   -1.820890
     30          8           0        0.132045   -1.636757    0.111601
     31          7           0       -4.613035   -2.001877    0.154691
     32          7           0        4.890082   -1.884089    0.129635
     33          6           0       -0.914755    3.448189    1.623880
     34          8           0       -1.490514    4.294049    2.273603
     35          8           0       -0.636599    2.222329    2.132760
     36          1           0       -0.987158    2.233871    3.043005
     37          6           0        6.225455   -1.296723   -0.043629
     38          1           0        6.868368   -2.084491   -0.465302
     39          1           0        6.178952   -0.507729   -0.807897
     40          6           0        6.837086   -0.765032    1.256009
     41          1           0        6.231417    0.048088    1.685361
     42          1           0        6.921079   -1.560525    2.013225
     43          1           0        7.848882   -0.375043    1.062289
     44          6           0        4.855142   -3.323920    0.408766
     45          1           0        4.038104   -3.534767    1.114843
     46          1           0        5.786020   -3.571721    0.940912
     47          6           0        4.727526   -4.190888   -0.848362
     48          1           0        4.736136   -5.256981   -0.571080
     49          1           0        3.791948   -3.983401   -1.390253
     50          1           0        5.566040   -4.014970   -1.540470
     51          6           0       -4.510305   -3.459599    0.199950
     52          1           0       -5.406826   -3.844069    0.698597
     53          1           0       -3.664030   -3.737690    0.843890
     54          6           0       -5.928893   -1.357039    0.045444
     55          1           0       -5.933937   -0.503164    0.745317
     56          1           0       -6.016358   -0.914502   -0.967279
     57          6           0       -7.140415   -2.236421    0.325624
     58          1           0       -7.130711   -2.646135    1.347279
     59          1           0       -8.039481   -1.608896    0.232953
     60          1           0       -7.245289   -3.064523   -0.390678
     61          6           0       -4.365931   -4.109802   -1.186616
     62          1           0       -3.456004   -3.762148   -1.699409
     63          1           0       -4.305230   -5.203673   -1.072447
     64          1           0       -5.230536   -3.880287   -1.828002
 ---------------------------------------------------------------------

 The electronic state is 1-A.
 Alpha  occ. eigenvalues --  -19.32773 -19.27898 -19.22019 -14.48259 -14.46191
 Alpha  occ. eigenvalues --  -10.41182 -10.38760 -10.37553 -10.36937 -10.35862
 Alpha  occ. eigenvalues --  -10.35128 -10.33190 -10.33165 -10.32558 -10.32482
 Alpha  occ. eigenvalues --  -10.31984 -10.31960 -10.31841 -10.31723 -10.31436
 Alpha  occ. eigenvalues --  -10.31014 -10.30956 -10.30547 -10.30461 -10.30144
 Alpha  occ. eigenvalues --  -10.29962 -10.29732 -10.29675 -10.29438 -10.28318
 Alpha  occ. eigenvalues --  -10.28244 -10.27672 -10.27213  -1.22955  -1.19815
 Alpha  occ. eigenvalues --   -1.10599  -1.07824  -1.05726  -0.99326  -0.97809
 Alpha  occ. eigenvalues --   -0.96405  -0.92380  -0.89550  -0.88079  -0.87680
 Alpha  occ. eigenvalues --   -0.87174  -0.86688  -0.86501  -0.84810  -0.83815
 Alpha  occ. eigenvalues --   -0.81991  -0.78453  -0.77016  -0.76320  -0.74999
 Alpha  occ. eigenvalues --   -0.74668  -0.74022  -0.72111  -0.71157  -0.70047
 Alpha  occ. eigenvalues --   -0.69835  -0.68410  -0.65419  -0.64961  -0.64018
 Alpha  occ. eigenvalues --   -0.62091  -0.61955  -0.61301  -0.60226  -0.59075
 Alpha  occ. eigenvalues --   -0.58753  -0.58337  -0.57500  -0.57309  -0.56357
 Alpha  occ. eigenvalues --   -0.56296  -0.55945  -0.55435  -0.55006  -0.54356
 Alpha  occ. eigenvalues --   -0.54041  -0.53903  -0.53548  -0.53258  -0.52926
 Alpha  occ. eigenvalues --   -0.52610  -0.51630  -0.50644  -0.49982  -0.49829
 Alpha  occ. eigenvalues --   -0.49801  -0.49181  -0.48724  -0.48052  -0.47813
 Alpha  occ. eigenvalues --   -0.47780  -0.47453  -0.47405  -0.47090  -0.46644
 Alpha  occ. eigenvalues --   -0.46388  -0.45875  -0.45420  -0.45208  -0.45020
 Alpha  occ. eigenvalues --   -0.44480  -0.44192  -0.43876  -0.43098  -0.41196
 Alpha  occ. eigenvalues --   -0.40129  -0.38114  -0.37014  -0.36736  -0.36146
 Alpha  occ. eigenvalues --   -0.35046  -0.33007  -0.30309
 Alpha virt. eigenvalues --   -0.20831  -0.15041  -0.12947  -0.12132  -0.11287
 Alpha virt. eigenvalues --   -0.10654  -0.05882  -0.04969  -0.04378  -0.04075
 Alpha virt. eigenvalues --   -0.02907  -0.02377  -0.01976  -0.01636  -0.01569

 Mulliken charges:
               1
     1  C    0.222035
     2  C   -0.031076
     3  C    0.092024
     4  C    0.047198
     5  C   -0.014922
     6  C    0.022863
     7  C    0.205645
     8  C   -0.011534
     9  C    0.118467
    10  C   -0.018379
    11  H   -0.007252
    12  C    0.203507
    13  C    0.031397
    14  C    0.003547
    15  H   -0.014561
    16  H   -0.003786
    17  H   -0.008675
    18  H   -0.001506
    19  H    0.000223
    20  C   -0.040183
    21  C   -0.062380
    22  C    0.028110
    23  C    0.082934
    24  C    0.062592
    25  H   -0.019795
    26  C    0.058803
    27  H    0.001474
    28  H    0.002366
    29  H    0.004421
    30  O   -0.210238
    31  N   -0.303929
    32  N   -0.260935
    33  C    0.153005
    34  O   -0.208908
    35  O   -0.172561
    36  H    0.161123
    37  C    0.036202
    38  H    0.037062
    39  H    0.042242
    40  C   -0.016744
    41  H    0.035076
    42  H    0.039228
    43  H    0.048130
    44  C    0.039868
    45  H    0.042438
    46  H    0.036025
    47  C   -0.016477
    48  H    0.047255
    49  H    0.033951
    50  H    0.039305
    51  C    0.049729
    52  H    0.030794
    53  H    0.034492
    54  C    0.028142
    55  H    0.045875
    56  H    0.037479
    57  C   -0.011142
    58  H    0.050939
    59  H    0.044727
    60  H    0.045055
    61  C   -0.016885
    62  H    0.029459
    63  H    0.040435
    64  H    0.036223
 Sum of Mulliken charges =   1.00000

 Dipole moment (field-independent basis, Debye):
    X=              2.8330    Y=             -4.0007    Z=             -1.4460  Tot=              5.1110
 Quadrupole moment (field-independent basis, Debye-Ang):
   XX=            -78.1447   YY=           -145.7579   ZZ=           -185.6914
   XY=              2.8247   XZ=              0.1035   YZ=            -14.4508

 Normal termination of Gaussian 16 at Fri Jun 11 07:40:21 2021.
