 Gaussian 16, Revision C.01,
 Gaussian 16:  ES64L-G16RevC.01  3-Jul-2019

 ----------------------------------------------------------------
 #p B3LYP/cc-pVDZ TD=(singlets,root=1) geom=checkpoint guess=read
 ----------------------------------------------------------------

 ---------------
 rhodamine TDDFT
 ---------------
 Structure from the checkpoint file:  "rhodamine2_tddft.chk"
 Charge =  1 Multiplicity = 1

                         Standard orientation:
 ---------------------------------------------------------------------
 Center     Atomic      Atomic             Coordinates (Angstroms)
 Number     Number       Type             X           Y           Z
 ---------------------------------------------------------------------
      1          6           0       -3.644929   -0.971952    0.091979
      2          6           0       -2.391377   -1.640575    0.151743
      3          6           0       -1.213016   -0.933543    0.007968
      4          6           0       -1.171460    0.473230   -0.222229
      5          6           0       -2.434910    1.127807   -0.301618
      6          6           0       -3.616563    0.447997   -0.158159
      7          6           0        0.076983    1.117903   -0.354511
      8          6           0        1.253002    0.344546   -0.273494
      9          6           0        1.153929   -1.059867   -0.040602
     10          6           0        2.256713   -1.887343    0.056202
     11          1           0        2.074449   -2.947018    0.214099
     12          6           0        3.567908   -1.354534   -0.072022
     13          6           0        3.682689    0.063954   -0.304388
     14          6           0        2.575769    0.864711   -0.398703
     15          1           0       -2.310009   -2.712338    0.309216
     16          1           0       -2.455920    2.201885   -0.487213
     17          1           0       -4.544249    1.007152   -0.241627
     18          1           0        4.664425    0.523144   -0.391087
     19          1           0        2.701927    1.934300   -0.567528
     20          6           0        0.147546    2.580637   -0.669604
     21          6           0        0.205369    3.609326    0.299900
     22          6           0        0.151714    2.930656   -2.030162
     23          6           0        0.263954    4.948906   -0.120537
     24          6           0        0.210714    4.267185   -2.431592
     25          1           0        0.106858    2.140591   -2.782537
     26          6           0        0.266899    5.281799   -1.472794
     27          1           0        0.307287    5.718193    0.651072
     28          1           0        0.212310    4.511238   -3.495873
     29          1           0        0.313011    6.328668   -1.777957
     30          8           0       -0.061731   -1.658388    0.091892
     31          7           0       -4.823209   -1.631438    0.263517
     32          7           0        4.669511   -2.142105    0.023348
     33          6           0        0.211971    3.401855    1.783372
     34          8           0        0.251666    4.302262    2.590982
     35          8           0        0.170866    2.099921    2.155118
     36          1           0        0.179516    2.103046    3.130546
     37          6           0        6.031446   -1.625916   -0.191674
     38          1           0        6.626145   -2.460250   -0.592719
     39          1           0        6.010687   -0.866109   -0.985599
     40          6           0        6.686154   -1.077774    1.078096
     41          1           0        6.128879   -0.219072    1.483569
     42          1           0        6.740886   -1.847387    1.864156
     43          1           0        7.713295   -0.747053    0.857773
     44          6           0        4.575828   -3.573789    0.347048
     45          1           0        3.763299   -3.726287    1.072202
     46          1           0        5.503511   -3.843152    0.873580
     47          6           0        4.391374   -4.468468   -0.881162
     48          1           0        4.360844   -5.525587   -0.573692
     49          1           0        3.455863   -4.238771   -1.414155
     50          1           0        5.224247   -4.347876   -1.591681
     51          6           0       -4.845710   -3.095864    0.396354
     52          1           0       -5.754558   -3.369985    0.942527
     53          1           0       -4.012433   -3.399294    1.045868
     54          6           0       -6.098148   -0.887586    0.123432
     55          1           0       -6.033267    0.009216    0.758704
     56          1           0       -6.194520   -0.534937   -0.919578
     57          6           0       -7.357792   -1.651989    0.514971
     58          1           0       -7.338740   -1.976819    1.566515
     59          1           0       -8.214447   -0.971066    0.397406
     60          1           0       -7.547108   -2.526734   -0.124463
     61          6           0       -4.793362   -3.838791   -0.941939
     62          1           0       -3.877562   -3.601031   -1.504981
     63          1           0       -4.815096   -4.926341   -0.767831
     64          1           0       -5.656215   -3.581024   -1.575954
 ---------------------------------------------------------------------

 SCF Done:  E(RB3LYP) =  -1420.73821901     A.U. after    1 cycles

 Excitation energies and oscillator strengths:

 Excited State   1:      Singlet-A      2.7078 eV  457.88 nm  f=0.8570  <S**2>=0.000
     118 ->119         0.70242
 This state for optimization and/or second-order correction.
 Total Energy, E(TD-HF/TD-DFT) =  -1420.63871036
 Copying the excited state density for this state as the 1-particle RhoCI density.

 Excited State   2:      Singlet-A      3.0971 eV  400.32 nm  f=0.0120  <S**2>=0.000
     116 ->119        -0.19299
     117 ->119         0.67464

 Excited State   3:      Singlet-A      3.5559 eV  348.68 nm  f=0.0060  <S**2>=0.000
     114 ->119        -0.35231
     115 ->119         0.60662

 The electronic state is 1-A.
 Alpha  occ. eigenvalues --  -19.32720 -19.27819 -19.21757 -14.47593 -14.47420
 Alpha  occ. eigenvalues --  -10.40938 -10.38148 -10.38022 -10.36296 -10.36013
 Alpha  occ. eigenvalues --  -10.34940 -10.32807 -10.32802 -10.32792 -10.32408
 Alpha  occ. eigenvalues --  -10.31908 -10.31698 -10.31637 -10.31327 -10.31224
 Alpha  occ. eigenvalues --  -10.30921 -10.30428 -10.30242 -10.29961 -10.29902
 Alpha  occ. eigenvalues --  -10.29839 -10.29731 -10.29273 -10.29132 -10.28234
 Alpha  occ. eigenvalues --  -10.28019 -10.27911 -10.27840  -1.23043  -1.19683
 Alpha  occ. eigenvalues --   -1.10495  -1.07388  -1.07000  -0.99201  -0.97774
 Alpha  occ. eigenvalues --   -0.96178  -0.92277  -0.89599  -0.87981  -0.87722
 Alpha  occ. eigenvalues --   -0.87081  -0.86854  -0.86171  -0.85066  -0.84059
 Alpha  occ. eigenvalues --   -0.82179  -0.77955  -0.77263  -0.76123  -0.75079
 Alpha  occ. eigenvalues --   -0.74663  -0.73755  -0.72347  -0.71187  -0.70118
 Alpha  occ. eigenvalues --   -0.69499  -0.68237  -0.65561  -0.65186  -0.63921
 Alpha  occ. eigenvalues --   -0.62017  -0.61711  -0.61340  -0.60353  -0.59351
 Alpha  occ. eigenvalues --   -0.58882  -0.58256  -0.57577  -0.57085  -0.56870
 Alpha  occ. eigenvalues --   -0.55924  -0.55654  -0.55486  -0.54966  -0.54232
 Alpha  occ. eigenvalues --   -0.53980  -0.53667  -0.53465  -0.53131  -0.52581
 Alpha  occ. eigenvalues --   -0.52269  -0.52110  -0.51406  -0.50006  -0.49827
 Alpha  occ. eigenvalues --   -0.49615  -0.48957  -0.48735  -0.48178  -0.47992
 Alpha  occ. eigenvalues --   -0.47823  -0.47531  -0.47419  -0.46899  -0.46590
 Alpha  occ. eigenvalues --   -0.46258  -0.45976  -0.45316  -0.45089  -0.44863
 Alpha  occ. eigenvalues --   -0.44722  -0.44321  -0.43577  -0.42888  -0.41090
 Alpha  occ. eigenvalues --   -0.40553  -0.38186  -0.36702  -0.36043  -0.35755
 Alpha  occ. eigenvalues --   -0.35629  -0.33250  -0.30437
 Alpha virt. eigenvalues --   -0.20086  -0.14675  -0.12727  -0.11361  -0.11048
 Alpha virt. eigenvalues --   -0.10957  -0.05738  -0.04694  -0.04525  -0.03799
 Alpha virt. eigenvalues --   -0.02907  -0.02147  -0.01940  -0.01704  -0.01458

 Mulliken charges:
               1
     1  C    0.223122
     2  C   -0.024198
     3  C    0.108708
     4  C    0.006506
     5  C    0.002237
     6  C    0.016237
     7  C    0.221095
     8  C    0.004037
     9  C    0.112687
    10  C   -0.025665
    11  H   -0.011134
    12  C    0.204364
    13  C    0.027198
    14  C    0.010100
    15  H   -0.012625
    16  H   -0.004301
    17  H   -0.008856
    18  H   -0.003660
    19  H   -0.004307
    20  C   -0.082554
    21  C   -0.047527
    22  C    0.047647
    23  C    0.078687
    24  C    0.058230
    25  H   -0.027505
    26  C    0.056654
    27  H   -0.000924
    28  H    0.000418
    29  H    0.001499
    30  O   -0.209516
    31  N   -0.293483
    32  N   -0.261962
    33  C    0.155061
    34  O   -0.207794
    35  O   -0.173369
    36  H    0.159588
    37  C    0.037149
    38  H    0.035163
    39  H    0.041804
    40  C   -0.015440
    41  H    0.034450
    42  H    0.037934
    43  H    0.046866
    44  C    0.041089
    45  H    0.040680
    46  H    0.034164
    47  C   -0.015073
    48  H    0.045544
    49  H    0.033352
    50  H    0.038623
    51  C    0.046799
    52  H    0.032470
    53  H    0.037841
    54  C    0.028540
    55  H    0.053809
    56  H    0.043167
    57  C   -0.016337
    58  H    0.052555
    59  H    0.046693
    60  H    0.046071
    61  C   -0.016017
    62  H    0.031364
    63  H    0.044695
    64  H    0.037353
 Sum of Mulliken charges =   1.00000

 Dipole moment (field-independent basis, Debye):
    X=             -0.2197    Y=             -4.7021    Z=             -1.6020  Tot=              4.9724
 Quadrupole moment (field-independent basis, Debye-Ang):
   XX=            -74.4507   YY=           -148.8597   ZZ=           -185.4950
   XY=             -3.3291   XZ=             -1.9281   YZ=            -15.7795

 Normal termination of Gaussian 16 at Thu Jun 10 23:03:04 2021.
