 Gaussian 16, Revision C.01,
 Gaussian 16:  ES64L-G16RevC.01  3-Jul-2019

 -------------------------
 #p b3lyp/cc-pvdz opt freq
 -------------------------

 -------------------------------
 (H2O)6 b3lyp/cc-pvdz (opt/freq)
 -------------------------------
 Symbolic Z-matrix:
 Charge =  0 Multiplicity = 1

 SCF Done:  E(RB3LYP) =  -458.641065287     A.U. after   10 cycles
 SCF Done:  E(RB3LYP) =  -458.632184715     A.U. after   11 cycles
 SCF Done:  E(RB3LYP) =  -458.641355879     A.U. after   10 cycles
 SCF Done:  E(RB3LYP) =  -458.641652756     A.U. after   10 cycles
 SCF Done:  E(RB3LYP) =  -458.641795911     A.U. after   10 cycles
 SCF Done:  E(RB3LYP) =  -458.641991673     A.U. after   10 cycles
 SCF Done:  E(RB3LYP) =  -458.642050142     A.U. after    9 cycles
 SCF Done:  E(RB3LYP) =  -458.642122235     A.U. after    9 cycles
 SCF Done:  E(RB3LYP) =  -458.642148176     A.U. after    9 cycles
 SCF Done:  E(RB3LYP) =  -458.642163211     A.U. after    8 cycles
 SCF Done:  E(RB3LYP) =  -458.642165228     A.U. after    7 cycles
 SCF Done:  E(RB3LYP) =  -458.642170562     A.U. after    7 cycles
 SCF Done:  E(RB3LYP) =  -458.642174105     A.U. after    7 cycles
 SCF Done:  E(RB3LYP) =  -458.642177015     A.U. after    8 cycles
 SCF Done:  E(RB3LYP) =  -458.642178834     A.U. after    7 cycles
 SCF Done:  E(RB3LYP) =  -458.642179904     A.U. after    7 cycles
 SCF Done:  E(RB3LYP) =  -458.642180321     A.U. after    7 cycles
 Optimization completed.
    -- Stationary point found.
 Normal termination of Gaussian 16 at Fri Jun 18 04:07:56 2021.

 -------------------------------------------------------------------
 #P Geom=AllCheck Guess=TCheck SCRF=Check GenChk RB3LYP/CC-pVDZ Freq
 -------------------------------------------------------------------

 Structure from the checkpoint file:  "w6-b3lyp-dz.chk"
 -------------------------------
 (H2O)6 b3lyp/cc-pvdz (opt/freq)
 -------------------------------
 Charge =  0 Multiplicity = 1

                         Standard orientation:
 ---------------------------------------------------------------------
 Center     Atomic      Atomic             Coordinates (Angstroms)
 Number     Number       Type             X           Y           Z
 ---------------------------------------------------------------------
      1          8           0       -0.032658   -1.423793    0.905025
      2          1           0       -0.873001   -1.455632    0.350902
      3          1           0       -0.220753   -1.981279    1.674300
      4          8           0       -0.048447    1.426280    0.893634
      5          1           0       -0.006215    0.477239    1.128536
      6          1           0        0.781804    1.554955    0.369297
      7          8           0        2.372729   -1.313557   -0.395968
      8          1           0        1.530305   -1.464073    0.096901
      9          1           0        2.225414   -1.746108   -1.250076
     10          8           0        2.324821    1.418196   -0.489346
     11          1           0        2.405402    0.432773   -0.548083
     12          1           0        3.027095    1.658913    0.133746
     13          8           0       -2.282577   -1.306727   -0.460998
     14          1           0       -2.416581   -0.311485   -0.463327
     15          1           0       -2.223899   -1.528311   -1.402443
     16          8           0       -2.317014    1.339099   -0.475810
     17          1           0       -1.426868    1.474603   -0.031160
     18          1           0       -2.937545    1.772413    0.129113
 ---------------------------------------------------------------------

 SCF Done:  E(RB3LYP) =  -458.642180321     A.U. after    1 cycles

 The electronic state is 1-A.
 Alpha  occ. eigenvalues --  -19.15269 -19.13706 -19.13621 -19.12340 -19.12313
 Alpha  occ. eigenvalues --  -19.10796  -1.02201  -1.00526  -0.99945  -0.98931
 Alpha  occ. eigenvalues --   -0.98408  -0.96582  -0.53799  -0.52473  -0.51848
 Alpha  occ. eigenvalues --   -0.50569  -0.50388  -0.49040  -0.43300  -0.40359
 Alpha  occ. eigenvalues --   -0.38934  -0.37877  -0.36596  -0.34402  -0.31960
 Alpha  occ. eigenvalues --   -0.30821  -0.30410  -0.29481  -0.28861  -0.28015
 Alpha virt. eigenvalues --    0.02482   0.06030   0.07077   0.08181   0.09141
 Alpha virt. eigenvalues --    0.15953   0.21323   0.22499   0.23470   0.25202
 Alpha virt. eigenvalues --    0.27287   0.29575   0.46305   0.49858   0.52932

 Mulliken charges:
               1
     1  O   -0.288303
     2  H    0.158710
     3  H    0.154077
     4  O   -0.315265
     5  H    0.119264
     6  H    0.146979
     7  O   -0.279061
     8  H    0.149957
     9  H    0.143009
    10  O   -0.279941
    11  H    0.137809
    12  H    0.141394
    13  O   -0.296317
    14  H    0.157527
    15  H    0.145921
    16  O   -0.299348
    17  H    0.160157
    18  H    0.143434
 Sum of Mulliken charges =   0.00000

 Dipole moment (field-independent basis, Debye):
    X=             -0.3046    Y=             -2.5940    Z=              0.3088  Tot=              2.6300
 Quadrupole moment (field-independent basis, Debye-Ang):
   XX=            -37.3522   YY=            -37.1951   ZZ=            -34.3924
   XY=             -0.5333   XZ=             -0.1729   YZ=              3.6437

  Exact polarizability:      45.046      -0.005      42.331       0.586       1.928      35.129
 Approx polarizability:      49.536       0.253      48.700       0.611       2.027      44.454

                      1                      2                      3
                      A                      A                      A
 Frequencies --     28.7721                41.7346                58.5147
 Red. masses --      5.0026                 5.4895                 5.6342
 Frc consts  --      0.0024                 0.0056                 0.0114
 IR Inten    --      0.5649                 0.3171                 2.8201

                      4                      5                      6
                      A                      A                      A
 Frequencies --     81.1191               100.5165               201.7548
 Red. masses --      7.1158                 7.5835                 5.8870
 Frc consts  --      0.0276                 0.0451                 0.1412
 IR Inten    --      0.5798                 4.1780                 0.9276

                      7                      8                      9
                      A                      A                      A
 Frequencies --    215.0124               232.1143               239.3539
 Red. masses --      4.9462                 1.5121                 2.2862
 Frc consts  --      0.1347                 0.0480                 0.0772
 IR Inten    --      6.0145                86.1363                58.7209

                     10                     11                     12
                      A                      A                      A
 Frequencies --    263.8218               271.7005               293.2315
 Red. masses --      1.4720                 2.2368                 1.2910
 Frc consts  --      0.0604                 0.0973                 0.0654
 IR Inten    --     30.7660               113.0521               110.5879

                     13                     14                     15
                      A                      A                      A
 Frequencies --    302.7863               310.1636               330.6409
 Red. masses --      3.0021                 1.1851                 1.2915
 Frc consts  --      0.1622                 0.0672                 0.0832
 IR Inten    --     20.7110               142.5990                31.5941

                     16                     17                     18
                      A                      A                      A
 Frequencies --    340.6638               354.1291               414.0370
 Red. masses --      4.6672                 3.1793                 1.0851
 Frc consts  --      0.3191                 0.2349                 0.1096
 IR Inten    --      5.5013                70.1772                16.6353

                     19                     20                     21
                      A                      A                      A
 Frequencies --    452.7529               462.9608               516.8565
 Red. masses --      1.0837                 1.0791                 1.0730
 Frc consts  --      0.1309                 0.1363                 0.1689
 IR Inten    --      5.7610                43.7646                 6.6952

                     22                     23                     24
                      A                      A                      A
 Frequencies --    528.5821               630.5792               700.0305
 Red. masses --      1.0622                 1.0487                 1.0593
 Frc consts  --      0.1749                 0.2457                 0.3058
 IR Inten    --      7.9121                 3.7105                71.0467

                     25                     26                     27
                      A                      A                      A
 Frequencies --    782.5237               869.2341               932.9360
 Red. masses --      1.0611                 1.0650                 1.0560
 Frc consts  --      0.3828                 0.4741                 0.5415
 IR Inten    --    219.8268               200.6149               257.8361

                     28                     29                     30
                      A                      A                      A
 Frequencies --    963.6956              1010.6363              1160.8296
 Red. masses --      1.0390                 1.0392                 1.0380
 Frc consts  --      0.5685                 0.6254                 0.8241
 IR Inten    --     42.7707               143.2050                28.3374

                     31                     32                     33
                      A                      A                      A
 Frequencies --   1662.3631              1685.7604              1688.7726
 Red. masses --      1.0766                 1.0792                 1.0749
 Frc consts  --      1.7529                 1.8070                 1.8062
 IR Inten    --     98.8791                92.2221                48.9748

                     34                     35                     36
                      A                      A                      A
 Frequencies --   1697.4663              1708.8830              1737.1338
 Red. masses --      1.0695                 1.0667                 1.0628
 Frc consts  --      1.8157                 1.8354                 1.8896
 IR Inten    --     37.2996                44.1205                42.6909

                     37                     38                     39
                      A                      A                      A
 Frequencies --   3015.9051              3155.3310              3229.6619
 Red. masses --      1.0691                 1.0652                 1.0628
 Frc consts  --      5.7295                 6.2484                 6.5314
 IR Inten    --    409.1740              2490.5289               819.5279

                     40                     41                     42
                      A                      A                      A
 Frequencies --   3360.7721              3446.9509              3484.0122
 Red. masses --      1.0644                 1.0595                 1.0599
 Frc consts  --      7.0833                 7.4172                 7.5804
 IR Inten    --    341.7269               836.2989               503.1450

                     43                     44                     45
                      A                      A                      A
 Frequencies --   3636.0459              3805.1445              3806.1841
 Red. masses --      1.0656                 1.0664                 1.0650
 Frc consts  --      8.3004                 9.0969                 9.0901
 IR Inten    --    413.3245                40.3812                49.2265

                     46                     47                     48
                      A                      A                      A
 Frequencies --   3806.9702              3813.3755              3817.0947
 Red. masses --      1.0653                 1.0672                 1.0655
 Frc consts  --      9.0968                 9.1436                 9.1470
 IR Inten    --     24.6560                63.6707                34.6912

 - Thermochemistry -
 -------------------
 Temperature   298.150 Kelvin.  Pressure   1.00000 Atm.
 Atom     1 has atomic number  8 and mass  15.99491

 Molecular mass:   108.06339 amu.
 Principal axes and moments of inertia in atomic units:
                           1         2         3
     Eigenvalues --   904.192481567.455932130.93767
           X            1.00000  -0.00160  -0.00012
           Y            0.00160   0.99994   0.01118
           Z            0.00010  -0.01118   0.99994
 This molecule is an asymmetric top.
 Rotational symmetry number  1.
 Warning -- assumption of classical behavior for rotation
           may cause significant error
 Rotational temperatures (Kelvin)      0.09579     0.05526     0.04065
 Rotational constants (GHZ):           1.99597     1.15138     0.84692
 Zero-point vibrational energy     392671.3 (Joules/Mol)
                                   93.85069 (Kcal/Mol)
 Warning -- explicit consideration of  22 degrees of freedom as
           vibrations may cause significant error
 Vibrational temperatures:     41.40    60.05    84.19   116.71   144.62
          (Kelvin)            290.28   309.35   333.96   344.38   379.58
                              390.92   421.89   435.64   446.26   475.72
                              490.14   509.51   595.71   651.41   666.10
                              743.64   760.51   907.26  1007.19  1125.88
                             1250.63  1342.29  1386.54  1454.08  1670.17
                             2391.77  2425.43  2429.77  2442.28  2458.70
                             2499.35  4339.21  4539.82  4646.76  4835.40
                             4959.39  5012.72  5231.46  5474.75  5476.25
                             5477.38  5486.60  5491.95

 Zero-point correction=                           0.149561 (Hartree/Particle)
 Thermal correction to Energy=                    0.163631
 Thermal correction to Enthalpy=                  0.164575
 Thermal correction to Gibbs Free Energy=         0.109300
 Sum of electronic and zero-point Energies=           -458.492620
 Sum of electronic and thermal Energies=              -458.478550
 Sum of electronic and thermal Enthalpies=            -458.477605
 Sum of electronic and thermal Free Energies=         -458.532880

                     E (Thermal)             CV                S
                      KCal/Mol        Cal/Mol-Kelvin    Cal/Mol-Kelvin
 Total                  102.680             47.531            116.335
 Electronic               0.000              0.000              0.000
 Translational            0.889              2.981             39.949
 Rotational               0.889              2.981             29.492
 Vibrational            100.902             41.569             46.894
 Vibration     1          0.593              1.984              5.912
 Vibration     2          0.594              1.981              5.175
 Vibration     3          0.596              1.974              4.507
 Vibration     4          0.600              1.962              3.864
 Vibration     5          0.604              1.949              3.444
 Vibration     6          0.639              1.837              2.117
 Vibration     7          0.645              1.818              2.001
 Vibration     8          0.653              1.792              1.863
 Vibration     9          0.657              1.780              1.808
 Vibration    10          0.670              1.739              1.636
 Vibration    11          0.675              1.725              1.585
 Vibration    12          0.688              1.686              1.455
 Vibration    13          0.694              1.668              1.401
 Vibration    14          0.699              1.654              1.361
 Vibration    15          0.713              1.614              1.257
 Vibration    16          0.720              1.594              1.209
 Vibration    17          0.730              1.567              1.148
 Vibration    18          0.778              1.440              0.912
 Vibration    19          0.811              1.355              0.787
 Vibration    20          0.821              1.332              0.758
 Vibration    21          0.872              1.213              0.617
 Vibration    22          0.884              1.187              0.590

                           ! Non-Optimized Parameters !
 Normal termination of Gaussian 16 at Fri Jun 18 04:12:43 2021.
